12
step: 0, t: 0.00 fs
 C  -0.88429826   1.09969785  -0.27140423 
 N   0.45548139   1.24984208  -0.35787612 
 B   1.43396548   0.23401719  -0.11189631 
 C   0.88440615  -1.09920799   0.27244692 
 N  -0.45544288  -1.24969403   0.35811154 
 B  -1.43397924  -0.23382747   0.11213388 
 H  -1.48347656   1.98493948  -0.49429780 
 H   1.48291666  -1.98496758   0.49511056 
 F  -2.73690809  -0.55886686   0.24500797 
 F   2.73688233   0.55834452  -0.24597437 
 H  -0.79669054  -2.17214290   0.62245644 
 H   0.79606320   2.17208703  -0.62329837 
12
step: 1, t: 0.25 fs
 C  -0.88423555   1.09953044  -0.27095782 
 N   0.45588932   1.24875843  -0.35758524 
 B   1.43436273   0.23387415  -0.11311325 
 C   0.88347888  -1.09877549   0.27293403 
 N  -0.45602728  -1.24987108   0.35862246 
 B  -1.43422071  -0.23284538   0.11391008 
 H  -1.48691525   1.98558853  -0.49641106 
 H   1.48575494  -1.97970570   0.49212529 
 F  -2.73639400  -0.55926912   0.24405143 
 F   2.73650284   0.55828480  -0.24608458 
 H  -0.79329125  -2.17261476   0.61999386 
 H   0.80181011   2.18071627  -0.62389598 
12
step: 2, t: 0.50 fs
 C  -0.88420885   1.09938974  -0.27051682 
 N   0.45635880   1.24770796  -0.35730545 
 B   1.43473472   0.23382007  -0.11435512 
 C   0.88256935  -1.09841405   0.27344031 
 N  -0.45664820  -1.25006592   0.35914047 
 B  -1.43443077  -0.23187560   0.11569137 
 H  -1.49018855   1.98600340  -0.49846569 
 H   1.48848400  -1.97430286   0.48910457 
 F  -2.73588997  -0.55967465   0.24309435 
 F   2.73612595   0.55822263  -0.24619455 
 H  -0.78975144  -2.17275700   0.61743585 
 H   0.80730516   2.18870975  -0.62431045 
12
step: 3, t: 0.75 fs
 C  -0.88422020   1.09927932  -0.27007912 
 N   0.45689812   1.24670095  -0.35703968 
 B   1.43508172   0.23385336  -0.11562919 
 C   0.88167097  -1.09811523   0.27396700 
 N  -0.45730702  -1.25027695   0.35966846 
 B  -1.43460988  -0.23091333   0.11748967 
 H  -1.49327787   1.98614286  -0.50046194 
 H   1.49113680  -1.96878388   0.48604556 
 F  -2.73539336  -0.56008627   0.24213011 
 F   2.73575001   0.55815764  -0.24630528 
 H  -0.78608077  -2.17261751   0.61478234 
 H   0.81249668   2.19589856  -0.62448536 
12
step: 4, t: 1.00 fs
 C  -0.88427116   1.09920410  -0.26964962 
 N   0.45750611   1.24576210  -0.35679457 
 B   1.43539824   0.23397212  -0.11692202 
 C   0.88079152  -1.09787527   0.27450678 
 N  -0.45799420  -1.25049863   0.36020065 
 B  -1.43475555  -0.22996936   0.11928769 
 H  -1.49611769   1.98596881  -0.50236884 
 H   1.49370553  -1.96326678   0.48299584 
 F  -2.73490963  -0.56050015   0.24116776 
 F   2.73537950   0.55809051  -0.24641597 
 H  -0.78235148  -2.17225435   0.61207830 
 H   0.81725846   2.20202485  -0.62437006 
12
step: 5, t: 1.25 fs
 C  -0.88436161   1.09916787  -0.26923507 
 N   0.45817594   1.24491705  -0.35657686 
 B   1.43567783   0.23417178  -0.11821304 
 C   0.87994271  -1.09769014   0.27504919 
 N  -0.45869573  -1.25072360   0.36072828 
 B  -1.43486535  -0.22905887   0.12105876 
 H  -1.49863845   1.98545880  -0.50414936 
 H   1.49617285  -1.95789999   0.48001881 
 F  -2.73444639  -0.56091024   0.24022132 
 F   2.73502072   0.55802229  -0.24652525 
 H  -0.77865871  -2.17173944   0.60938546 
 H   0.82146149   2.20685658  -0.62393102 
12
step: 6, t: 1.50 fs
 C  -0.88449017   1.09918052  -0.26883804 
 N   0.45889224   1.24418597  -0.35639117 
 B   1.43591355   0.23437993  -0.11948134 
 C   0.87913593  -1.09750668   0.27557853 
 N  -0.45940879  -1.25095311   0.36125188 
 B  -1.43494023  -0.22819233   0.12280487 
 H  -1.50081531   1.98460654  -0.50579914 
 H   1.49855679  -1.95275934   0.47713541 
 F  -2.73400280  -0.56131522   0.23929047 
 F   2.73468061   0.55795679  -0.24663444 
 H  -0.77505420  -2.17114418   0.60672657 
 H   0.82507440   2.21032633  -0.62315617 
12
step: 7, t: 1.75 fs
 C  -0.88465548   1.09924243  -0.26845926 
 N   0.45965295   1.24357628  -0.35623928 
 B   1.43610375   0.23459361  -0.12072286 
 C   0.87837104  -1.09731845   0.27609144 
 N  -0.46012745  -1.25118194   0.36176927 
 B  -1.43498018  -0.22737220   0.12452199 
 H  -1.50263116   1.98340980  -0.50731128 
 H   1.50087343  -1.94791760   0.47436825 
 F  -2.73358018  -0.56171429   0.23837705 
 F   2.73436048   0.55789416  -0.24674350 
 H  -0.77158589  -2.17054318   0.60412979 
 H   0.82806149   2.21236634  -0.62203524 
12
step: 8, t: 2.00 fs
 C  -0.88486107   1.09935563  -0.26808762 
 N   0.46047932   1.24307533  -0.35611790 
 B   1.43625236   0.23481677  -0.12197210 
 C   0.87762449  -1.09711356   0.27660055 
 N  -0.46086828  -1.25141202   0.36229437 
 B  -1.43498617  -0.22657566   0.12625938 
 H  -1.50412820   1.98183416  -0.50872705 
 H   1.50320907  -1.94329507   0.47165341 
 F  -2.73316681  -0.56211904   0.23745455 
 F   2.73405174   0.55783261  -0.24685578 
 H  -0.76819386  -2.16999204   0.60154229 
 H   0.83048559   2.21298913  -0.62052808 
12
step: 9, t: 2.25 fs
 C  -0.88510521   1.09952000  -0.26772349 
 N   0.46136913   1.24268829  -0.35602819 
 B   1.43635709   0.23504697  -0.12322559 
 C   0.87689642  -1.09688612   0.27710287 
 N  -0.46162603  -1.25163834   0.36282538 
 B  -1.43495766  -0.22580517   0.12801391 
 H  -1.50529540   1.97988624  -0.51004264 
 H   1.50557731  -1.93895889   0.46901117 
 F  -2.73276403  -0.56252888   0.23652435 
 F   2.73375576   0.55777227  -0.24697132 
 H  -0.76492450  -2.16956466   0.59899032 
 H   0.83232238   2.21215772  -0.61863260 
12
step: 10, t: 2.50 fs
 C  -0.88537664   1.09972820  -0.26737889 
 N   0.46228856   1.24242872  -0.35597304 
 B   1.43641319   0.23527413  -0.12443837 
 C   0.87621084  -1.09663879   0.27757909 
 N  -0.46237013  -1.25184876   0.36334291 
 B  -1.43489586  -0.22508802   0.12972401 
 H  -1.50609594   1.97765327  -0.51121515 
 H   1.50790985  -1.93510805   0.46654615 
 F  -2.73238622  -0.56292959   0.23561876 
 F   2.73348335   0.55771522  -0.24708627 
 H  -0.76192794  -2.16934292   0.59658246 
 H   0.83350948   2.20992112  -0.61642516 
12
step: 11, t: 2.75 fs
 C  -0.88568221   1.09998563  -0.26704007 
 N   0.46326836   1.24228491  -0.35594960 
 B   1.43642175   0.23550487  -0.12565458 
 C   0.87554101  -1.09635787   0.27804543 
 N  -0.46312441  -1.25204740   0.36386561 
 B  -1.43479877  -0.22439767   0.13145321 
 H  -1.50656957   1.97507903  -0.51229372 
 H   1.51030406  -1.93163867   0.46417672 
 F  -2.73201957  -0.56333619   0.23470376 
 F   2.73322479   0.55765929  -0.24720509 
 H  -0.75912490  -2.16937811   0.59424596 
 H   0.83410374   2.20624418  -0.61384105 
12
step: 12, t: 3.00 fs
 C  -0.88601363   1.10028572  -0.26671126 
 N   0.46428950   1.24225610  -0.35595718 
 B   1.43638129   0.23573390  -0.12685425 
 C   0.87489667  -1.09604374   0.27849322 
 N  -0.46387352  -1.25222797   0.36438491 
 B  -1.43466794  -0.22374521   0.13317447 
 H  -1.50672133   1.97223526  -0.51326834 
 H   1.51272888  -1.92864037   0.46194904 
 F  -2.73167015  -0.56374252   0.23379329 
 F   2.73298463   0.55760531  -0.24732616 
 H  -0.75658977  -2.16972272   0.59203235 
 H   0.83411345   2.20124716  -0.61094207 
12
step: 13, t: 3.25 fs
 C  -0.88636816   1.10062634  -0.26638960 
 N   0.46535180   1.24233631  -0.35599403 
 B   1.43629066   0.23596073  -0.12804208 
 C   0.87427438  -1.09569201   0.27892343 
 N  -0.46461767  -1.25238905   0.36490303 
 B  -1.43450309  -0.22312762   0.13489574 
 H  -1.50657188   1.96914954  -0.51415321 
 H   1.51519634  -1.92612329   0.45985907 
 F  -2.73133658  -0.56415062   0.23288276 
 F   2.73276212   0.55755294  -0.24745024 
 H  -0.75433569  -2.17041854   0.58994268 
 H   0.83357122   2.19500795  -0.60774600 
12
step: 14, t: 3.50 fs
 C  -0.88674028   1.10100262  -0.26607429 
 N   0.46644713   1.24251729  -0.35605771 
 B   1.43614916   0.23618349  -0.12921464 
 C   0.87367548  -1.09530140   0.27933426 
 N  -0.46535223  -1.25252889   0.36541891 
 B  -1.43430499  -0.22254616   0.13661315 
 H  -1.50614658   1.96587635  -0.51495820 
 H   1.51769607  -1.92410819   0.45791564 
 F  -2.73101977  -0.56455976   0.23197379 
 F   2.73255809   0.55750220  -0.24757725 
 H  -0.75238787  -2.17149147   0.58798953 
 H   0.83252233   2.18767183  -0.60429892 
12
step: 15, t: 3.75 fs
 C  -0.88712694   1.10141214  -0.26576175 
 N   0.46757527   1.24278980  -0.35614565 
 B   1.43595514   0.23640223  -0.13037806 
 C   0.87309689  -1.09486851   0.27972746 
 N  -0.46607885  -1.25264792   0.36593593 
 B  -1.43407291  -0.22199721   0.13833675 
 H  -1.50547255   1.96245029  -0.51570182 
 H   1.52023192  -1.92258972   0.45610963 
 F  -2.73071808  -0.56497253   0.23106062 
 F   2.73237162   0.55745268  -0.24770815 
 H  -0.75075042  -2.17296161   0.58616594 
 H   0.83101677   2.17935875  -0.60062758 
12
step: 16, t: 4.00 fs
 C  -0.88751932   1.10184635  -0.26545264 
 N   0.46871930   1.24313865  -0.35625353 
 B   1.43570957   0.23661410  -0.13152216 
 C   0.87254417  -1.09439670   0.28009942 
 N  -0.46678936  -1.25274589   0.36645049 
 B  -1.43380935  -0.22148491   0.14005242 
 H  -1.50458980   1.95895917  -0.51639380 
 H   1.52276638  -1.92157663   0.45445573 
 F  -2.73043407  -0.56538576   0.23015025 
 F   2.73220447   0.55740465  -0.24784207 
 H  -0.74944645  -2.17481513   0.58448737 
 H   0.82913701   2.17033548  -0.59681781 
12
step: 17, t: 4.25 fs
 C  -0.88790975   1.10229770  -0.26514618 
 N   0.46986569   1.24354655  -0.35637660 
 B   1.43541339   0.23681732  -0.13264168 
 C   0.87202072  -1.09388901   0.28044853 
 N  -0.46747897  -1.25282429   0.36696136 
 B  -1.43351628  -0.22101068   0.14175299 
 H  -1.50354151   1.95548221  -0.51704890 
 H   1.52526640  -1.92105738   0.45295793 
 F  -2.73016893  -0.56579793   0.22924602 
 F   2.73205736   0.55735812  -0.24797865 
 H  -0.74848374  -2.17702499   0.58295691 
 H   0.82697651   2.16087652  -0.59295038 
12
step: 18, t: 4.50 fs
 C  -0.88828530   1.10275227  -0.26484549 
 N   0.47098508   1.24398791  -0.35650777 
 B   1.43507234   0.23700775  -0.13371712 
 C   0.87153669  -1.09335645   0.28076917 
 N  -0.46813459  -1.25288483   0.36746087 
 B  -1.43320006  -0.22058155   0.14340926 
 H  -1.50238916   1.95214602  -0.51767478 
 H   1.52766207  -1.92101188   0.45163580 
 F  -2.72992697  -0.56620212   0.22836298 
 F   2.73193258   0.55731371  -0.24811566 
 H  -0.74787252  -2.17951595   0.58159226 
 H   0.82467230   2.15141429  -0.58916398 
12
step: 19, t: 4.75 fs
 C  -0.88865374   1.10322100  -0.26453713 
 N   0.47210906   1.24445942  -0.35664669 
 B   1.43467404   0.23719192  -0.13478832 
 C   0.87107572  -1.09278183   0.28107366 
 N  -0.46877966  -1.25293356   0.36796902 
 B  -1.43284995  -0.22018060   0.14508310 
 H  -1.50113301   1.94889388  -0.51831408 
 H   1.53001154  -1.92140693   0.45043369 
 F  -2.72969905  -0.56661362   0.22746764 
 F   2.73182537   0.55726955  -0.24825840 
 H  -0.74758222  -2.18233453   0.58033228 
 H   0.82224569   2.14188583  -0.58539436 
12
step: 20, t: 5.00 fs
 C  -0.88900807   1.10369740  -0.26421910 
 N   0.47322521   1.24493937  -0.35678767 
 B   1.43421860   0.23736903  -0.13585350 
 C   0.87064081  -1.09216862   0.28136182 
 N  -0.46941237  -1.25297479   0.36848682 
 B  -1.43246700  -0.21980793   0.14677261 
 H  -1.49981739   1.94580047  -0.51898600 
 H   1.53227548  -1.92221159   0.44934773 
 F  -2.72948557  -0.56703223   0.22656045 
 F   2.73173601   0.55722547  -0.24840696 
 H  -0.74760696  -2.18542420   0.57916777 
 H   0.81981513   2.13261795  -0.58172962 
12
step: 21, t: 5.25 fs
 C  -0.88933904   1.10417188  -0.26389145 
 N   0.47431334   1.24540154  -0.35692378 
 B   1.43370964   0.23753726  -0.13690407 
 C   0.87023783  -1.09152512   0.28163186 
 N  -0.47002714  -1.25301338   0.36901205 
 B  -1.43205502  -0.21946583   0.14846492 
 H  -1.49849604   1.94295962  -0.51970554 
 H   1.53439691  -1.92338127   0.44837922 
 F  -2.72928821  -0.56745500   0.22564773 
 F   2.73166519   0.55718157  -0.24856044 
 H  -0.74793519  -2.18869628   0.57809434 
 H   0.81752298   2.12401560  -0.57828513 
12
step: 22, t: 5.50 fs
 C  -0.88963112   1.10462499  -0.26356155 
 N   0.47533065   1.24581026  -0.35704540 
 B   1.43316336   0.23769148  -0.13790938 
 C   0.86988055  -1.09087471   0.28187679 
 N  -0.47060591  -1.25305382   0.36953115 
 B  -1.43162748  -0.21916313   0.15011084 
 H  -1.49724951   1.94051626  -0.52047035 
 H   1.53627530  -1.92483286   0.44754641 
 F  -2.72911241  -0.56786982   0.22475550 
 F   2.73161458   0.55713887  -0.24871452 
 H  -0.74853767  -2.19198034   0.57712698 
 H   0.81555773   2.11665061  -0.57524342 
12
step: 23, t: 5.75 fs
 C  -0.88988127   1.10505492  -0.26322530 
 N   0.47627413   1.24614848  -0.35714832 
 B   1.43257830   0.23783269  -0.13887639 
 C   0.86956811  -1.09021818   0.28209939 
 N  -0.47115280  -1.25310209   0.37004927 
 B  -1.43118331  -0.21889632   0.15172159 
 H  -1.49610672   1.93850545  -0.52130160 
 H   1.53788719  -1.92652215   0.44683229 
 F  -2.72895647  -0.56827964   0.22387720 
 F   2.73158319   0.55709682  -0.24887035 
 H  -0.74939401  -2.19522017   0.57624178 
 H   0.81401530   2.11075620  -0.57265500 
12
step: 24, t: 6.00 fs
 C  -0.89010458   1.10546207  -0.26286735 
 N   0.47718550   1.24639853  -0.35723023 
 B   1.43193424   0.23800703  -0.13984326 
 C   0.86930054  -1.08955310   0.28231050 
 N  -0.47166536  -1.25319149   0.37058942 
 B  -1.43073520  -0.21861799   0.15333562 
 H  -1.49507271   1.93691259  -0.52224168 
 H   1.53922938  -1.92845107   0.44620516 
 F  -2.72881685  -0.56869718   0.22298610 
 F   2.73156293   0.55704912  -0.24903191 
 H  -0.75053513  -2.19841818   0.57539669 
 H   0.81293916   2.10638152  -0.57049257 
12
step: 25, t: 6.25 fs
 C  -0.89030244   1.10585430  -0.26247458 
 N   0.47808282   1.24655101  -0.35728945 
 B   1.43121206   0.23822062  -0.14083878 
 C   0.86907331  -1.08886457   0.28251704 
 N  -0.47215798  -1.25333185   0.37117027 
 B  -1.43027118  -0.21831861   0.15500148 
 H  -1.49414844   1.93574517  -0.52333517 
 H   1.54029512  -1.93063383   0.44563913 
 F  -2.72868960  -0.56913539   0.22205449 
 F   2.73155309   0.55699386  -0.24920442 
 H  -0.75198225  -2.20159016   0.57455199 
 H   0.81239336   2.10365651  -0.56875791 
12
step: 26, t: 6.50 fs
 C  -0.89046186   1.10621160  -0.26206168 
 N   0.47892048   1.24658799  -0.35732072 
 B   1.43044356   0.23846492  -0.14182031 
 C   0.86889904  -1.08818730   0.28271090 
 N  -0.47260906  -1.25352386   0.37176933 
 B  -1.42981254  -0.21800997   0.15664835 
 H  -1.49339855   1.93509606  -0.52454842 
 H   1.54099505  -1.93293089   0.44515035 
 F  -2.72858022  -0.56957597   0.22112114 
 F   2.73155385   0.55693295  -0.24938091 
 H  -0.75365752  -2.20452181   0.57372943 
 H   0.81247005   2.10288286  -0.56757194 
12
step: 27, t: 6.75 fs
 C  -0.89058245   1.10653886  -0.26161909 
 N   0.47970991   1.24650583  -0.35732366 
 B   1.42961591   0.23874474  -0.14280669 
 C   0.86877649  -1.08751357   0.28289668 
 N  -0.47302715  -1.25377691   0.37240013 
 B  -1.42935192  -0.21768537   0.15830843 
 H  -1.49282479   1.93497955  -0.52591323 
 H   1.54130485  -1.93533930   0.44472078 
 F  -2.72848646  -0.57002778   0.22016710 
 F   2.73156480   0.55686481  -0.24956509 
 H  -0.75557447  -2.20719659   0.57289975 
 H   0.81320320   2.10413101  -0.56693306 
12
step: 28, t: 7.00 fs
 C  -0.89065760   1.10682384  -0.26116150 
 N   0.48042115   1.24631055  -0.35729903 
 B   1.42876125   0.23904983  -0.14376279 
 C   0.86871130  -1.08687254   0.28306872 
 N  -0.47339755  -1.25408661   0.37304192 
 B  -1.42890713  -0.21735588   0.15992321 
 H  -1.49245406   1.93541011  -0.52738458 
 H   1.54118248  -1.93772799   0.44435707 
 F  -2.72841138  -0.57047504   0.21922539 
 F   2.73158502   0.55679148  -0.24975074 
 H  -0.75764512  -2.20945548   0.57208075 
 H   0.81456093   2.10733754  -0.56685904 
12
step: 29, t: 7.25 fs
 C  -0.89068620   1.10706545  -0.26069255 
 N   0.48104997   1.24601553  -0.35724997 
 B   1.42789073   0.23937651  -0.14468071 
 C   0.86870369  -1.08627407   0.28322666 
 N  -0.47371809  -1.25445272   0.37369026 
 B  -1.42848309  -0.21702422   0.16147989 
 H  -1.49228324   1.93636991  -0.52894665 
 H   1.54061213  -1.94003534   0.44405332 
 F  -2.72835500  -0.57091421   0.21830321 
 F   2.73161357   0.55671338  -0.24993646 
 H  -0.75982990  -2.21123350   0.57127004 
 H   0.81648060   2.11232895  -0.56731306 
12
step: 30, t: 7.50 fs
 C  -0.89066894   1.10726936  -0.26020579 
 N   0.48160872   1.24563333  -0.35717993 
 B   1.42699617   0.23972827  -0.14557338 
 C   0.86875293  -1.08571393   0.28337368 
 N  -0.47399404  -1.25488193   0.37435503 
 B  -1.42807502  -0.21668586   0.16300101 
 H  -1.49229592   1.93784742  -0.53061415 
 H   1.53957346  -1.94225800   0.44379764 
 F  -2.72831595  -0.57135162   0.21738691 
 F   2.73165009   0.55662919  -0.25012508 
 H  -0.76214020  -2.21252031   0.57044961 
 H   0.81891288   2.11896195  -0.56824829 
12
step: 31, t: 7.75 fs
 C  -0.89060647   1.10743918  -0.25970012 
 N   0.48210351   1.24518305  -0.35709368 
 B   1.42607902   0.24010507  -0.14644312 
 C   0.86885851  -1.08519456   0.28351101 
 N  -0.47422645  -1.25537653   0.37503886 
 B  -1.42768289  -0.21634008   0.16449133 
 H  -1.49247185   1.93981467  -0.53238168 
 H   1.53805294  -1.94437179   0.44358318 
 F  -2.72829371  -0.57178868   0.21647325 
 F   2.73169402   0.55653838  -0.25031734 
 H  -0.76456701  -2.21329233   0.56961298 
 H   0.82177159   2.12699818  -0.56960459 
12
step: 32, t: 8.00 fs
 C  -0.89049837   1.10758217  -0.25916509 
 N   0.48254981   1.24467769  -0.35699489 
 B   1.42512358   0.24051419  -0.14730809 
 C   0.86902224  -1.08470897   0.28364219 
 N  -0.47441996  -1.25594797   0.37575715 
 B  -1.42729956  -0.21597980   0.16598287 
 H  -1.49278908   1.94227642  -0.53427440 
 H   1.53600721  -1.94639591   0.44340080 
 F  -2.72828763  -0.57223492   0.21554200 
 F   2.73174567   0.55643865  -0.25051766 
 H  -0.76715065  -2.21354469   0.56874047 
 H   0.82501406   2.13632473  -0.57134284 
12
step: 33, t: 8.25 fs
 C  -0.89034953   1.10769893  -0.25861687 
 N   0.48294058   1.24415687  -0.35689250 
 B   1.42416168   0.24094280  -0.14814290 
 C   0.86923819  -1.08427478   0.28376402 
 N  -0.47456872  -1.25657927   0.37648970 
 B  -1.42693716  -0.21561591   0.16743286 
 H  -1.49320543   1.94511211  -0.53622105 
 H   1.53349250  -1.94825227   0.44325211 
 F  -2.72829763  -0.57267762   0.21461937 
 F   2.73180289   0.55633255  -0.25072053 
 H  -0.76980701  -2.21326340   0.56785812 
 H   0.82843152   2.14635376  -0.57333662 
12
step: 34, t: 8.50 fs
 C  -0.89016350   1.10779481  -0.25805888 
 N   0.48328108   1.24364834  -0.35679313 
 B   1.42320163   0.24138780  -0.14894424 
 C   0.86950294  -1.08389599   0.28387663 
 N  -0.47467247  -1.25726541   0.37723363 
 B  -1.42659780  -0.21525062   0.16883642 
 H  -1.49367979   1.94824729  -0.53819359 
 H   1.53052965  -1.94992288   0.44313468 
 F  -2.72832315  -0.57311525   0.21370824 
 F   2.73186468   0.55622025  -0.25092540 
 H  -0.77251759  -2.21246409   0.56697307 
 H   0.83189119   2.15670967  -0.57549658 
12
step: 35, t: 8.75 fs
 C  -0.88994692   1.10787468  -0.25750163 
 N   0.48357268   1.24318472  -0.35670426 
 B   1.42226352   0.24184036  -0.14969938 
 C   0.86980872  -1.08358000   0.28397882 
 N  -0.47473016  -1.25799119   0.37797660 
 B  -1.42628726  -0.21489073   0.17017202 
 H  -1.49416196   1.95156066  -0.54013770 
 H   1.52718782  -1.95137863   0.44304832 
 F  -2.72836315  -0.57354091   0.21282258 
 F   2.73192922   0.55610342  -0.25112915 
 H  -0.77523286  -2.21119149   0.56610571 
 H   0.83522396   2.16690167  -0.57770882 
12
step: 36, t: 9.00 fs
 C  -0.88969200   1.10794909  -0.25691810 
 N   0.48383583   1.24276553  -0.35662693 
 B   1.42130389   0.24232227  -0.15044663 
 C   0.87016808  -1.08331231   0.28407616 
 N  -0.47474449  -1.25878958   0.37875633 
 B  -1.42599021  -0.21451880   0.17150845 
 H  -1.49463293   1.95515263  -0.54212942 
 H   1.52331543  -1.95269551   0.44298825 
 F  -2.72841932  -0.57397652   0.21191645 
 F   2.73199909   0.55597580  -0.25134245 
 H  -0.77809012  -2.20941563   0.56522007 
 H   0.83849557   2.17715235  -0.58001506 
12
step: 37, t: 9.25 fs
 C  -0.88941471   1.10802104  -0.25633856 
 N   0.48406245   1.24243282  -0.35657010 
 B   1.42037455   0.24280842  -0.15114883 
 C   0.87055974  -1.08310731   0.28416412 
 N  -0.47471438  -1.25961615   0.37953396 
 B  -1.42572171  -0.21415423   0.17278029 
 H  -1.49502493   1.95877505  -0.54404623 
 H   1.51912845  -1.95381691   0.44295822 
 F  -2.72848856  -0.57440075   0.21103388 
 F   2.73207012   0.55584342  -0.25155505 
 H  -0.78094994  -2.20727082   0.56437040 
 H   0.84144983   2.18668291  -0.58223641 
12
step: 38, t: 9.50 fs
 C  -0.88911288   1.10809875  -0.25575209 
 N   0.48426203   1.24219727  -0.35653682 
 B   1.41945957   0.24330781  -0.15182127 
 C   0.87098772  -1.08296041   0.28424488 
 N  -0.47463930  -1.26048225   0.38032558 
 B  -1.42547593  -0.21379025   0.17401607 
 H  -1.49530380   1.96243452  -0.54590575 
 H   1.51457202  -1.95478424   0.44295910 
 F  -2.72857185  -0.57482296   0.21015502 
 F   2.73214309   0.55570321  -0.25177179 
 H  -0.78387761  -2.20477310   0.56355047 
 H   0.84407159   2.19546616  -0.58436415 
12
step: 39, t: 9.75 fs
 C  -0.88879243   1.10818809  -0.25516496 
 N   0.48443652   1.24207669  -0.35653118 
 B   1.41857045   0.24381503  -0.15245840 
 C   0.87144407  -1.08287260   0.28431791 
 N  -0.47451962  -1.26137399   0.38112403 
 B  -1.42525483  -0.21343096   0.17520655 
 H  -1.49542618   1.96603269  -0.54766935 
 H   1.50972075  -1.95561186   0.44299368 
 F  -2.72866811  -0.57523993   0.20928628 
 F   2.73221669   0.55555610  -0.25199117 
 H  -0.78685587  -2.20201106   0.56278082 
 H   0.84627141   2.20322820  -0.58633225 
12
step: 40, t: 10.00 fs
 C  -0.88845756   1.10829498  -0.25458000 
 N   0.48458845   1.24208411  -0.35655626 
 B   1.41771306   0.24432748  -0.15305872 
 C   0.87192277  -1.08284309   0.28438311 
 N  -0.47435550  -1.26228160   0.38192652 
 B  -1.42505867  -0.21307835   0.17634978 
 H  -1.49535455   1.96949638  -0.54931074 
 H   1.50462977  -1.95632631   0.44306546 
 F  -2.72877668  -0.57565086   0.20842898 
 F   2.73229004   0.55540222  -0.25221290 
 H  -0.78988591  -2.19906789   0.56207816 
 H   0.84799042   2.20978730  -0.58809627 
12
step: 41, t: 10.25 fs
 C  -0.88811408   1.10842412  -0.25400304 
 N   0.48471894   1.24222896  -0.35661413 
 B   1.41689741   0.24483985  -0.15361776 
 C   0.87241492  -1.08287049   0.28444001 
 N  -0.47414833  -1.26318996   0.38272581 
 B  -1.42488848  -0.21273630   0.17743791 
 H  -1.49505741   1.97274023  -0.55079730 
 H   1.49938687  -1.95695589   0.44317814 
 F  -2.72889624  -0.57605275   0.20758907 
 F   2.73236189   0.55524262  -0.25243551 
 H  -0.79295363  -2.19604832   0.56146324 
 H   0.84917633   2.21496991  -0.58961205 
12
step: 42, t: 10.50 fs
 C  -0.88776870   1.10857879  -0.25344148 
 N   0.48482840   1.24251522  -0.35670552 
 B   1.41613509   0.24534530  -0.15412990 
 C   0.87290978  -1.08295198   0.28448801 
 N  -0.47390091  -1.26408095   0.38351212 
 B  -1.42474530  -0.21240952   0.17846046 
 H  -1.49451326   1.97567950  -0.55209654 
 H   1.49410127  -1.95753188   0.44333498 
 F  -2.72902492  -0.57644148   0.20677489 
 F   2.73243084   0.55507896  -0.25265675 
 H  -0.79603525  -2.19306884   0.56095732 
 H   0.84979426   2.21864404  -0.59084311 
12
step: 43, t: 10.75 fs
 C  -0.88742104   1.10876418  -0.25289144 
 N   0.48491897   1.24294807  -0.35683188 
 B   1.41542188   0.24584692  -0.15459999 
 C   0.87340621  -1.08308545   0.28452749 
 N  -0.47361182  -1.26495403   0.38429106 
 B  -1.42462696  -0.21209616   0.17942738 
 H  -1.49369896   1.97829829  -0.55320604 
 H   1.48878148  -1.95809958   0.44354215 
 F  -2.72916326  -0.57682057   0.20597882 
 F   2.73249689   0.55490980  -0.25287869 
 H  -0.79916617  -2.19018554   0.56057002 
 H   0.84983980   2.22080094  -0.59178831 
12
step: 44, t: 11.00 fs
 C  -0.88707430   1.10898288  -0.25235532 
 N   0.48499097   1.24352686  -0.35699300 
 B   1.41476202   0.24634210  -0.15502695 
 C   0.87389750  -1.08326764   0.28455825 
 N  -0.47328270  -1.26579877   0.38505914 
 B  -1.42453286  -0.21179808   0.18033671 
 H  -1.49260385   1.98055549  -0.55411124 
 H   1.48349732  -1.95869887   0.44380419 
 F  -2.72931034  -0.57718903   0.20520272 
 F   2.73255927   0.55473562  -0.25310080 
 H  -0.80234510  -2.18748407   0.56031576 
 H   0.84931248   2.22142181  -0.59244003 
12
step: 45, t: 11.25 fs
 C  -0.88672939   1.10923775  -0.25183235 
 N   0.48504464   1.24425116  -0.35718886 
 B   1.41415555   0.24683106  -0.15541216 
 C   0.87437986  -1.08349602   0.28458026 
 N  -0.47291373  -1.26660994   0.38581720 
 B  -1.42446174  -0.21151535   0.18119152 
 H  -1.49121837   1.98243229  -0.55480610 
 H   1.47828918  -1.95937288   0.44412693 
 F  -2.72946603  -0.57754790   0.20444421 
 F   2.73261765   0.55455598  -0.25332375 
 H  -0.80558604  -2.18502763   0.56020563 
 H   0.84822132   2.22052728  -0.59280258 
12
step: 46, t: 11.50 fs
 C  -0.88639201   1.10952683  -0.25132943 
 N   0.48507900   1.24510676  -0.35741578 
 B   1.41361121   0.24730671  -0.15575122 
 C   0.87484247  -1.08376450   0.28459316 
 N  -0.47251113  -1.26737082   0.38655464 
 B  -1.42441329  -0.21125221   0.18198191 
 H  -1.48956112   1.98389140  -0.55527765 
 H   1.47327478  -1.96015292   0.44451084 
 F  -2.72962780  -0.57789275   0.20371247 
 F   2.73267084   0.55437319  -0.25354481 
 H  -0.80885071  -2.18290628   0.56025007 
 H   0.84660365   2.21818590  -0.59288277 
12
step: 47, t: 11.75 fs
 C  -0.88605260   1.10985982  -0.25083110 
 N   0.48509412   1.24611401  -0.35767934 
 B   1.41311322   0.24778303  -0.15605482 
 C   0.87529528  -1.08407866   0.28459722 
 N  -0.47206392  -1.26809915   0.38729342 
 B  -1.42438491  -0.21100115   0.18273281 
 H  -1.48758537   1.98497040  -0.55553761 
 H   1.46834857  -1.96110152   0.44497255 
 F  -2.72980024  -0.57823433   0.20298454 
 F   2.73272005   0.55418162  -0.25377092 
 H  -0.81224030  -2.18110376   0.56045847 
 H   0.84443836   2.21440005  -0.59269951 
12
step: 48, t: 12.00 fs
 C  -0.88570289   1.11024648  -0.25032454 
 N   0.48508832   1.24729429  -0.35798523 
 B   1.41265081   0.24827162  -0.15632996 
 C   0.87574558  -1.08444527   0.28459218 
 N  -0.47156130  -1.26880780   0.38805184 
 B  -1.42437525  -0.21075659   0.18346279 
 H  -1.48524221   1.98568746  -0.55558679 
 H   1.46343448  -1.96228375   0.44553033 
 F  -2.72998763  -0.57858138   0.20224159 
 F   2.73276604   0.55397610  -0.25400814 
 H  -0.81584129  -2.17962029   0.56084651 
 H   0.84169476   2.20914016  -0.59226520 
12
step: 49, t: 12.25 fs
 C  -0.88534410   1.11068632  -0.24981124 
 N   0.48505862   1.24863750  -0.35833096 
 B   1.41222774   0.24877031  -0.15657451 
 C   0.87618759  -1.08486239   0.28457764 
 N  -0.47100573  -1.26948887   0.38882678 
 B  -1.42438381  -0.21052030   0.18416816 
 H  -1.48254495   1.98603560  -0.55541996 
 H   1.45860025  -1.96373603   0.44618904 
 F  -2.73018932  -0.57893264   0.20148603 
 F   2.73280811   0.55375702  -0.25425594 
 H  -0.81963704  -2.17849896   0.56142255 
 H   0.83841555   2.20251750  -0.59160565 
12
step: 50, t: 12.50 fs
 C  -0.88498116   1.11117242  -0.24929823 
 N   0.48500193   1.25011311  -0.35870885 
 B   1.41185167   0.24927134  -0.15678409 
 C   0.87661107  -1.08532302   0.28455356 
 N  -0.47040717  -1.27012820   0.38960645 
 B  -1.42440963  -0.21029644   0.18483762 
 H  -1.47954841   1.98601814  -0.55503975 
 H   1.45396446  -1.96547125   0.44694403 
 F  -2.73040218  -0.57928289   0.20072888 
 F   2.73284515   0.55352740  -0.25451093 
 H  -0.82356041  -2.17777686   0.56218338 
 H   0.83470190   2.19477807  -0.59076760 
12
step: 51, t: 12.75 fs
 C  -0.88462161   1.11169166  -0.24879625 
 N   0.48491574   1.25167141  -0.35910635 
 B   1.41153127   0.24976309  -0.15695382 
 C   0.87700358  -1.08581549   0.28452047 
 N  -0.46978226  -1.27070910   0.39037301 
 B  -1.42445090  -0.21009040   0.18545580 
 H  -1.47634725   1.98565981  -0.55446202 
 H   1.44967122  -1.96747310   0.44778035 
 F  -2.73062108  -0.57962421   0.19998718 
 F   2.73287599   0.55329239  -0.25476744 
 H  -0.82750349  -2.17746838   0.56311068 
 H   0.83071292   2.18630696  -0.58982064 
12
step: 52, t: 13.00 fs
 C  -0.88424311   1.11227253  -0.24827461 
 N   0.48478980   1.25338676  -0.35954261 
 B   1.41124839   0.25027441  -0.15709300 
 C   0.87738561  -1.08636885   0.28447635 
 N  -0.46909709  -1.27126390   0.39117171 
 B  -1.42450903  -0.20989051   0.18605819 
 H  -1.47278096   1.98496654  -0.55365933 
 H   1.44550615  -1.96988069   0.44874980 
 F  -2.73085875  -0.57997667   0.19921710 
 F   2.73290201   0.55303793  -0.25504086 
 H  -0.83167557  -2.17754557   0.56425844 
 H   0.82629687   2.17684077  -0.58876803 
12
step: 53, t: 13.25 fs
 C  -0.88385785   1.11289125  -0.24775090 
 N   0.48462226   1.25517627  -0.35999666 
 B   1.41101418   0.25078666  -0.15719552 
 C   0.87774098  -1.08696391   0.28442275 
 N  -0.46837986  -1.27177112   0.39197375 
 B  -1.42458094  -0.20970449   0.18662151 
 H  -1.46901233   1.98399748  -0.55266904 
 H   1.44165726  -1.97262233   0.44981891 
 F  -2.73110650  -0.58032739   0.19844658 
 F   2.73292183   0.55277300  -0.25532153 
 H  -0.83589590  -2.17798431   0.56558280 
 H   0.82171304   2.16700380  -0.58771942 
12
step: 54, t: 13.50 fs
 C  -0.88346190   1.11354712  -0.24722060 
 N   0.48440549   1.25702449  -0.36046468 
 B   1.41082718   0.25130271  -0.15726150 
 C   0.87807037  -1.08760485   0.28435962 
 N  -0.46763100  -1.27223399   0.39278394 
 B  -1.42466576  -0.20953148   0.18714802 
 H  -1.46506345   1.98279469  -0.55149996 
 H   1.43812961  -1.97571470   0.45099198 
 F  -2.73136544  -0.58067825   0.19767134 
 F   2.73293522   0.55249602  -0.25561118 
 H  -0.84015187  -2.17874631   0.56708343 
 H   0.81705412   2.15707447  -0.58675264 
12
step: 55, t: 13.75 fs
 C  -0.88306150   1.11422146  -0.24669294 
 N   0.48413705   1.25886470  -0.36092980 
 B   1.41069049   0.25181194  -0.15728945 
 C   0.87836661  -1.08827951   0.28428869 
 N  -0.46687116  -1.27264454   0.39358592 
 B  -1.42476030  -0.20937501   0.18762622 